<?xml version="1.0" encoding="UTF-8"?>

<!-- generated on 2025-10-26 14:35:01 by Eclipse SUMO GUI Version 1.24.0
<sumoConfiguration xmlns:xsi="http://www.w3.org/2001/XMLSchema-instance" xsi:noNamespaceSchemaLocation="http://sumo.dlr.de/xsd/sumoConfiguration.xsd">

    <input>
        <net-file value="C:\Program Files (x86)\Eclipse\Sumo\tools\2025-10-26-14-34-38\osm.net.xml.gz"/>
        <route-files value="C:\Program Files (x86)\Eclipse\Sumo\tools\2025-10-26-14-34-38\osm.bicycle.trips.xml,C:\Program Files (x86)\Eclipse\Sumo\tools\2025-10-26-14-34-38\osm.bus.trips.xml,C:\Program Files (x86)\Eclipse\Sumo\tools\2025-10-26-14-34-38\osm.motorcycle.trips.xml,C:\Program Files (x86)\Eclipse\Sumo\tools\2025-10-26-14-34-38\osm.passenger.trips.xml,C:\Program Files (x86)\Eclipse\Sumo\tools\2025-10-26-14-34-38\osm.pedestrian.rou.xml,C:\Program Files (x86)\Eclipse\Sumo\tools\2025-10-26-14-34-38\osm.truck.trips.xml"/>
        <additional-files value="C:\Program Files (x86)\Eclipse\Sumo\tools\2025-10-26-14-34-38\osm.poly.xml.gz,C:\Program Files (x86)\Eclipse\Sumo\tools\2025-10-26-14-34-38\output.add.xml"/>
    </input>

    <output>
        <tripinfo-output value="C:\Program Files (x86)\Eclipse\Sumo\tools\2025-10-26-14-34-38\tripinfos.xml"/>
        <statistic-output value="C:\Program Files (x86)\Eclipse\Sumo\tools\2025-10-26-14-34-38\stats.xml"/>
    </output>

    <processing>
        <ignore-route-errors value="true"/>
        <tls.actuated.jam-threshold value="30"/>
    </processing>

    <routing>
        <device.rerouting.adaptation-steps value="18"/>
        <device.rerouting.adaptation-interval value="10"/>
    </routing>

    <report>
        <verbose value="true"/>
        <duration-log.statistics value="true"/>
        <no-step-log value="true"/>
    </report>

    <gui_only>
        <gui-settings-file value="C:\Program Files (x86)\Eclipse\Sumo\tools\2025-10-26-14-34-38\osm.view.xml"/>
    </gui_only>

</sumoConfiguration>
-->

<meandata xmlns:xsi="http://www.w3.org/2001/XMLSchema-instance" xsi:noNamespaceSchemaLocation="http://sumo.dlr.de/xsd/meandata_file.xsd">
    <interval begin="0.00" end="2424.00" id="wizard_example">
        <edge id="-1006630385" sampledSeconds="0.00" departed="0" arrived="0" entered="0" left="0" laneChangedFrom="0" laneChangedTo="0"/>
        <edge id="-1006630386" sampledSeconds="0.00" departed="0" arrived="0" entered="0" left="0" laneChangedFrom="0" laneChangedTo="0"/>
        <edge id="-1006641969" sampledSeconds="103.02" traveltime="15.04" overlapTraveltime="15.32" density="9.22" laneDensity="9.22" occupancy="1.44" waitingTime="88.00" timeLoss="95.54" speed="0.41" speedRelative="0.05" departed="1" arrived="0" entered="6" left="7" laneChangedFrom="0" laneChangedTo="0"/>
        <edge id="-1006641971#1" sampledSeconds="1.26" traveltime="1.30" overlapTraveltime="1.59" density="0.08" laneDensity="0.08" occupancy="0.01" waitingTime="0.00" timeLoss="0.08" speed="5.10" speedRelative="0.57" departed="1" arrived="0" entered="0" left="1" laneChangedFrom="0" laneChangedTo="0"/>
        <edge id="-1007519965" sampledSeconds="0.00" departed="0" arrived="0" entered="0" left="0" laneChangedFrom="0" laneChangedTo="0"/>
        <edge id="-1007519967" sampledSeconds="25.05" traveltime="1.36" overlapTraveltime="1.67" density="1.40" laneDensity="1.40" occupancy="0.18" waitingTime="0.00" timeLoss="1.65" speed="5.37" speedRelative="0.60" departed="0" arrived="0" entered="15" left="15" laneChangedFrom="0" laneChangedTo="0"/>
        <edge id="-1007519971" sampledSeconds="40.22" traveltime="2.17" overlapTraveltime="2.51" density="1.50" laneDensity="1.50" occupancy="0.21" waitingTime="0.00" timeLoss="3.16" speed="5.03" speedRelative="0.56" departed="0" arrived="0" entered="16" left="16" laneChangedFrom="0" laneChangedTo="0"/>
        <edge id="-1007519972" sampledSeconds="9.25" traveltime="0.22" overlapTraveltime="0.54" density="3.64" laneDensity="3.64" occupancy="0.23" waitingTime="0.00" timeLoss="1.23" speed="4.87" speedRelative="0.54" departed="0" arrived="0" entered="17" left="17" laneChangedFrom="0" laneChangedTo="0"/>
        <edge id="-1007519979" sampledSeconds="15.05" traveltime="0.63" overlapTraveltime="0.94" density="1.92" laneDensity="1.92" occupancy="0.21" waitingTime="0.00" timeLoss="1.07" speed="5.14" speedRelative="0.58" departed="0" arrived="0" entered="16" left="16" laneChangedFrom="0" laneChangedTo="0"/>
        <edge id="-1007519980" sampledSeconds="45.76" traveltime="2.55" overlapTraveltime="2.86" density="1.43" laneDensity="1.43" occupancy="0.20" waitingTime="0.00" timeLoss="3.55" speed="5.17" speedRelative="0.58" departed="0" arrived="1" entered="16" left="15" laneChangedFrom="0" laneChangedTo="0"/>
        <edge id="-1007519983" sampledSeconds="1004.04" traveltime="27.34" overlapTraveltime="62.80" density="29.95" laneDensity="29.95" occupancy="3.07" waitingTime="907.00" timeLoss="959.60" speed="0.25" speedRelative="0.03" departed="0" arrived="1" entered="16" left="15" laneChangedFrom="0" laneChangedTo="0"/>
        <edge id="-1007519984" sampledSeconds="50.82" traveltime="2.52" overlapTraveltime="3.20" density="104.82" laneDensity="104.82" occupancy="2.03" waitingTime="36.00" timeLoss="45.68" speed="0.56" speedRelative="0.06" departed="1" arrived="0" entered="15" left="16" laneChangedFrom="0" laneChangedTo="0"/>
        <edge id="-1007655986" sampledSeconds="5.10" traveltime="0.75" overlapTraveltime="1.07" density="0.58" laneDensity="0.58" occupancy="0.07" waitingTime="0.00" timeLoss="0.83" speed="4.87" speedRelative="0.54" departed="0" arrived="1" entered="5" left="4" laneChangedFrom="0" laneChangedTo="0"/>
        <edge id="-1007655987" sampledSeconds="22.12" traveltime="1.16" overlapTraveltime="1.47" density="1.47" laneDensity="1.47" occupancy="0.19" waitingTime="0.00" timeLoss="1.33" speed="5.29" speedRelative="0.59" departed="0" arrived="0" entered="15" left="15" laneChangedFrom="0" laneChangedTo="0"/>
        <edge id="-1034354983" sampledSeconds="0.00" departed="0" arrived="0" entered="0" left="0" laneChangedFrom="0" laneChangedTo="0"/>
        <edge id="-1034354984#0" sampledSeconds="0.00" departed="0" arrived="0" entered="0" left="0" laneChangedFrom="0" laneChangedTo="0"/>
        <edge id="-1034354984#1" sampledSeconds="0.00" departed="0" arrived="0" entered="0" left="0" laneChangedFrom="0" laneChangedTo="0"/>
        <edge id="-1052054050" sampledSeconds="0.00" departed="0" arrived="0" entered="0" left="0" laneChangedFrom="0" laneChangedTo="0"/>
        <edge id="-1059707540#0" sampledSeconds="25.19" traveltime="2.03" overlapTraveltime="3.09" density="0.87" laneDensity="0.87" occupancy="0.38" waitingTime="0.00" timeLoss="8.84" speed="6.14" speedRelative="0.69" departed="1" arrived="0" entered="8" left="9" laneChangedFrom="0" laneChangedTo="0"/>
        <edge id="-1059707542#0" sampledSeconds="23.88" traveltime="1.00" overlapTraveltime="2.23" density="1.59" laneDensity="0.80" occupancy="0.26" waitingTime="0.00" timeLoss="6.51" speed="6.08" speedRelative="0.68" departed="1" arrived="0" entered="11" left="12" laneChangedFrom="0" laneChangedTo="0"/>
        <edge id="-1059707545" sampledSeconds="11.93" traveltime="0.04" overlapTraveltime="1.36" density="23.44" laneDensity="23.44" occupancy="0.48" waitingTime="0.00" timeLoss="2.69" speed="6.67" speedRelative="0.75" departed="0" arrived="1" entered="12" left="11" laneChangedFrom="0" laneChangedTo="0"/>
        <edge id="-1062480573#0" sampledSeconds="23.64" traveltime="1.68" overlapTraveltime="2.59" density="0.80" laneDensity="0.40" occupancy="0.14" waitingTime="0.00" timeLoss="4.55" speed="6.83" speedRelative="0.76" departed="0" arrived="3" entered="10" left="7" laneChangedFrom="0" laneChangedTo="0"/>
        <edge id="-1062480575" sampledSeconds="44.00" traveltime="3.03" overlapTraveltime="3.64" density="2.00" laneDensity="1.00" occupancy="0.31" waitingTime="12.00" timeLoss="23.84" speed="3.79" speedRelative="0.42" departed="2" arrived="1" entered="10" left="11" laneChangedFrom="0" laneChangedTo="0"/>
        <edge id="-1064730491#0" sampledSeconds="0.84" traveltime="0.50" overlapTraveltime="0.84" density="0.15" laneDensity="0.15" occupancy="0.01" waitingTime="0.00" timeLoss="0.07" speed="4.75" speedRelative="0.85" departed="0" arrived="0" entered="1" left="1" laneChangedFrom="0" laneChangedTo="0"/>
        <edge id="-1064730491#1" sampledSeconds="0.33" overlapTraveltime="0.48" density="0.19" laneDensity="0.19" occupancy="0.01" waitingTime="0.00" timeLoss="0.05" speed="4.85" speedRelative="0.87" departed="1" arrived="0" entered="0" left="1" laneChangedFrom="0" laneChangedTo="0"/>
        <edge id="-1065127939#0" sampledSeconds="47.99" traveltime="1.36" overlapTraveltime="2.28" density="2.61" laneDensity="2.61" occupancy="0.81" waitingTime="0.00" timeLoss="12.54" speed="6.02" speedRelative="0.67" departed="0" arrived="0" entered="22" left="22" laneChangedFrom="0" laneChangedTo="0"/>
        <edge id="-1065127939#1" sampledSeconds="417.93" traveltime="16.80" overlapTraveltime="18.79" density="20.75" laneDensity="20.75" occupancy="9.75" waitingTime="316.00" timeLoss="379.12" speed="0.76" speedRelative="0.08" departed="2" arrived="1" entered="22" left="22" laneChangedFrom="0" laneChangedTo="0"/>
        <edge id="-1065127940" sampledSeconds="285.60" traveltime="15.13" overlapTraveltime="15.85" density="1.04" laneDensity="1.04" occupancy="0.56" waitingTime="0.00" timeLoss="29.25" speed="7.52" speedRelative="0.84" departed="1" arrived="0" entered="17" left="18" laneChangedFrom="0" laneChangedTo="0"/>
        <edge id="-1065127941" sampledSeconds="52.67" traveltime="4.37" overlapTraveltime="5.18" density="0.78" laneDensity="0.78" occupancy="0.41" waitingTime="0.00" timeLoss="11.76" speed="6.72" speedRelative="0.75" departed="3" arrived="0" entered="8" left="11" laneChangedFrom="0" laneChangedTo="0"/>
        <edge id="-1065177554#0" sampledSeconds="37.41" traveltime="0.03" overlapTraveltime="1.13" density="77.16" laneDensity="77.16" occupancy="1.49" waitingTime="0.00" timeLoss="10.65" speed="6.23" speedRelative="0.70" departed="1" arrived="0" entered="39" left="40" laneChangedFrom="0" laneChangedTo="0"/>
        <edge id="-1065258328#2" sampledSeconds="80.90" traveltime="9.53" overlapTraveltime="10.35" density="1.47" laneDensity="0.74" occupancy="0.18" waitingTime="31.00" timeLoss="49.80" speed="2.44" speedRelative="0.27" departed="0" arrived="2" entered="8" left="6" laneChangedFrom="0" laneChangedTo="0"/>
        <edge id="-1073694879" sampledSeconds="6.24" traveltime="0.70" overlapTraveltime="1.04" density="0.90" laneDensity="0.90" occupancy="0.09" waitingTime="0.00" timeLoss="1.62" speed="4.28" speedRelative="0.77" departed="0" arrived="0" entered="6" left="6" laneChangedFrom="0" laneChangedTo="0"/>
        <edge id="-1073694880" sampledSeconds="44.99" traveltime="5.68" overlapTraveltime="6.43" density="0.66" laneDensity="0.66" occupancy="0.10" waitingTime="2.00" timeLoss="8.03" speed="4.63" speedRelative="0.83" departed="0" arrived="1" entered="7" left="6" laneChangedFrom="0" laneChangedTo="0"/>
        <edge id="-1082149576" sampledSeconds="0.00" departed="0" arrived="0" entered="0" left="0" laneChangedFrom="0" laneChangedTo="0"/>
        <edge id="-1096513923" sampledSeconds="0.00" departed="0" arrived="0" entered="0" left="0" laneChangedFrom="0" laneChangedTo="0"/>
        <edge id="-1100812341#0" sampledSeconds="381.71" traveltime="8.93" overlapTraveltime="9.54" density="2.32" laneDensity="1.16" occupancy="0.54" waitingTime="0.00" timeLoss="37.96" speed="7.66" speedRelative="0.86" departed="1" arrived="1" entered="39" left="39" laneChangedFrom="0" laneChangedTo="0"/>
        <edge id="-1100812341#1" sampledSeconds="27.72" traveltime="0.03" overlapTraveltime="0.88" density="57.18" laneDensity="28.59" occupancy="0.55" waitingTime="0.00" timeLoss="3.45" speed="7.80" speedRelative="0.87" departed="1" arrived="1" entered="39" left="39" laneChangedFrom="0" laneChangedTo="0"/>
        <edge id="-1112581129" sampledSeconds="0.00" departed="0" arrived="0" entered="0" left="0" laneChangedFrom="0" laneChangedTo="0"/>
        <edge id="-1112581135" sampledSeconds="0.00" departed="0" arrived="0" entered="0" left="0" laneChangedFrom="0" laneChangedTo="0"/>
        <edge id="-1112581137#0" sampledSeconds="354.25" traveltime="6.33" overlapTraveltime="9.46" density="6.27" laneDensity="6.27" occupancy="3.17" waitingTime="97.00" timeLoss="209.18" speed="3.12" speedRelative="0.35" departed="0" arrived="6" entered="39" left="33" laneChangedFrom="0" laneChangedTo="0"/>
        <edge id="-1112581137#1" sampledSeconds="140.48" traveltime="2.10" overlapTraveltime="3.67" density="5.48" laneDensity="5.48" occupancy="2.13" waitingTime="43.00" timeLoss="68.30" speed="4.57" speedRelative="0.51" departed="0" arrived="0" entered="39" left="39" laneChangedFrom="0" laneChangedTo="0"/>
        <edge id="-1112581139#1" sampledSeconds="9.84" traveltime="1.02" overlapTraveltime="1.41" density="2.32" laneDensity="2.32" occupancy="0.19" waitingTime="3.00" timeLoss="5.54" speed="2.38" speedRelative="0.27" departed="0" arrived="0" entered="7" left="7" laneChangedFrom="0" laneChangedTo="0"/>
        <edge id="-1112581140" sampledSeconds="16.79" traveltime="2.09" overlapTraveltime="2.40" density="0.63" laneDensity="0.63" occupancy="0.09" waitingTime="0.00" timeLoss="0.74" speed="5.22" speedRelative="0.58" departed="0" arrived="0" entered="7" left="7" laneChangedFrom="0" laneChangedTo="0"/>
        <edge id="-1112581141" sampledSeconds="13.69" traveltime="1.64" overlapTraveltime="1.96" density="0.66" laneDensity="0.66" occupancy="0.09" waitingTime="0.00" timeLoss="0.69" speed="5.18" speedRelative="0.58" departed="0" arrived="0" entered="7" left="7" laneChangedFrom="0" laneChangedTo="0"/>
        <edge id="-1113340304#0" sampledSeconds="0.00" departed="0" arrived="0" entered="0" left="0" laneChangedFrom="0" laneChangedTo="0"/>
        <edge id="-1113340304#1" sampledSeconds="0.00" departed="0" arrived="0" entered="0" left="0" laneChangedFrom="0" laneChangedTo="0"/>
        <edge id="-1140688622" sampledSeconds="32.82" traveltime="16.14" overlapTraveltime="16.41" density="0.14" laneDensity="0.14" occupancy="0.02" waitingTime="0.00" timeLoss="1.64" speed="6.01" speedRelative="0.67" departed="0" arrived="1" entered="2" left="1" laneChangedFrom="0" laneChangedTo="0"/>
        <edge id="-1140688624" sampledSeconds="1.53" traveltime="0.24" overlapTraveltime="0.51" density="0.44" laneDensity="0.44" occupancy="0.03" waitingTime="0.00" timeLoss="0.08" speed="5.97" speedRelative="0.67" departed="0" arrived="1" entered="3" left="2" laneChangedFrom="0" laneChangedTo="0"/>
        <edge id="-116815569#0" sampledSeconds="0.00" departed="0" arrived="0" entered="0" left="0" laneChangedFrom="0" laneChangedTo="0"/>
        <edge id="-116815569#1" sampledSeconds="0.00" departed="0" arrived="0" entered="0" left="0" laneChangedFrom="0" laneChangedTo="0"/>
        <edge id="-1180356340" sampledSeconds="0.00" departed="0" arrived="0" entered="0" left="0" laneChangedFrom="0" laneChangedTo="0"/>
        <edge id="-1180356341" sampledSeconds="0.00" departed="0" arrived="0" entered="0" left="0" laneChangedFrom="0" laneChangedTo="0"/>
        <edge id="-1182205021#1" sampledSeconds="0.00" departed="0" arrived="0" entered="0" left="0" laneChangedFrom="0" laneChangedTo="0"/>
        <edge id="-1184088403" sampledSeconds="0.00" departed="0" arrived="0" entered="0" left="0" laneChangedFrom="0" laneChangedTo="0"/>
        <edge id="-1184088404" sampledSeconds="0.00" departed="0" arrived="0" entered="0" left="0" laneChangedFrom="0" laneChangedTo="0"/>
        <edge id="-1184088405" sampledSeconds="0.00" departed="0" arrived="0" entered="0" left="0" laneChangedFrom="0" laneChangedTo="0"/>
        <edge id="-1186049313#1" sampledSeconds="222.35" traveltime="14.65" overlapTraveltime="14.23" density="81.90" laneDensity="81.90" occupancy="1.83" waitingTime="189.90" timeLoss="212.06" speed="0.30" speedRelative="0.03" departed="0" arrived="0" entered="14" left="14" laneChangedFrom="0" laneChangedTo="0"/>
        <edge id="-1200987340" sampledSeconds="12.93" traveltime="1.28" overlapTraveltime="1.97" density="0.68" laneDensity="0.68" occupancy="0.17" waitingTime="0.00" timeLoss="2.24" speed="5.92" speedRelative="0.66" departed="0" arrived="5" entered="7" left="2" laneChangedFrom="0" laneChangedTo="0"/>
        <edge id="-1205368692" sampledSeconds="0.00" departed="0" arrived="0" entered="0" left="0" laneChangedFrom="0" laneChangedTo="0"/>
        <edge id="-1205368697" sampledSeconds="0.00" departed="0" arrived="0" entered="0" left="0" laneChangedFrom="0" laneChangedTo="0"/>
        <edge id="-1205368701" sampledSeconds="0.00" departed="0" arrived="0" entered="0" left="0" laneChangedFrom="0" laneChangedTo="0"/>
        <edge id="-1205368708" sampledSeconds="0.00" departed="0" arrived="0" entered="0" left="0" laneChangedFrom="0" laneChangedTo="0"/>
        <edge id="-1205368710" sampledSeconds="0.00" departed="0" arrived="0" entered="0" left="0" laneChangedFrom="0" laneChangedTo="0"/>
        <edge id="-1205368711#1" sampledSeconds="0.00" departed="0" arrived="0" entered="0" left="0" laneChangedFrom="0" laneChangedTo="0"/>
        <edge id="-1205368715#0" sampledSeconds="0.00" departed="0" arrived="0" entered="0" left="0" laneChangedFrom="0" laneChangedTo="0"/>
        <edge id="-1205368715#2" sampledSeconds="0.00" departed="0" arrived="0" entered="0" left="0" laneChangedFrom="0" laneChangedTo="0"/>
        <edge id="-1205368717" sampledSeconds="0.00" departed="0" arrived="0" entered="0" left="0" laneChangedFrom="0" laneChangedTo="0"/>
        <edge id="-1205368718#0" sampledSeconds="4.63" traveltime="0.11" overlapTraveltime="0.77" density="9.54" laneDensity="9.54" occupancy="0.17" waitingTime="0.00" timeLoss="2.72" speed="2.33" speedRelative="0.26" departed="0" arrived="0" entered="6" left="6" laneChangedFrom="0" laneChangedTo="0"/>
        <edge id="-1205368718#1" sampledSeconds="2.48" traveltime="0.03" overlapTraveltime="0.35" density="7.88" laneDensity="7.88" occupancy="0.09" waitingTime="0.00" timeLoss="0.15" speed="4.88" speedRelative="0.55" departed="0" arrived="0" entered="7" left="7" laneChangedFrom="0" laneChangedTo="0"/>
        <edge id="-1205368736#0" sampledSeconds="0.00" departed="0" arrived="0" entered="0" left="0" laneChangedFrom="0" laneChangedTo="0"/>
        <edge id="-1205940421" sampledSeconds="5.81" traveltime="5.80" overlapTraveltime="6.13" density="0.08" laneDensity="0.08" occupancy="0.01" waitingTime="0.00" timeLoss="0.70" speed="5.31" speedRelative="0.96" departed="1" arrived="0" entered="0" left="1" laneChangedFrom="0" laneChangedTo="0"/>
        <edge id="-1207336897#0" sampledSeconds="0.54" traveltime="0.30" overlapTraveltime="0.54" density="0.11" laneDensity="0.11" occupancy="0.01" waitingTime="0.00" timeLoss="0.00" speed="6.63" speedRelative="0.74" departed="0" arrived="1" entered="1" left="0" laneChangedFrom="0" laneChangedTo="0"/>
        <edge id="-1207336897#1" sampledSeconds="1.02" traveltime="0.76" overlapTraveltime="1.02" density="0.09" laneDensity="0.09" occupancy="0.01" waitingTime="0.00" timeLoss="0.07" speed="6.17" speedRelative="0.69" departed="0" arrived="0" entered="1" left="1" laneChangedFrom="0" laneChangedTo="0"/>
        <edge id="-1207336898#0" sampledSeconds="10.02" traveltime="4.74" overlapTraveltime="5.01" density="0.14" laneDensity="0.14" occupancy="0.02" waitingTime="0.00" timeLoss="0.49" speed="6.01" speedRelative="0.67" departed="0" arrived="0" entered="2" left="2" laneChangedFrom="0" laneChangedTo="0"/>
        <edge id="-1207336898#1" sampledSeconds="0.59" traveltime="0.03" overlapTraveltime="0.29" density="1.21" laneDensity="1.21" occupancy="0.02" waitingTime="0.00" timeLoss="0.02" speed="6.13" speedRelative="0.69" departed="0" arrived="0" entered="2" left="2" laneChangedFrom="0" laneChangedTo="0"/>
        <edge id="-1211000762" sampledSeconds="2.33" traveltime="0.06" overlapTraveltime="0.81" density="4.81" laneDensity="4.81" occupancy="0.09" waitingTime="0.00" timeLoss="1.41" speed="2.23" speedRelative="0.25" departed="1" arrived="0" entered="2" left="3" laneChangedFrom="0" laneChangedTo="0"/>
        <edge id="-1211612020#1" sampledSeconds="253.53" traveltime="7.94" overlapTraveltime="12.97" density="3.54" laneDensity="3.54" occupancy="1.37" waitingTime="131.00" timeLoss="165.47" speed="2.87" speedRelative="0.32" departed="3" arrived="0" entered="18" left="21" laneChangedFrom="0" laneChangedTo="0"/>
        <edge id="-1232962008" sampledSeconds="485.93" traveltime="5.83" overlapTraveltime="6.50" density="4.90" laneDensity="4.90" occupancy="2.15" waitingTime="0.00" timeLoss="56.20" speed="7.10" speedRelative="0.79" departed="1" arrived="2" entered="74" left="73" laneChangedFrom="0" laneChangedTo="0"/>
        <edge id="-1232962030#0" sampledSeconds="3.31" traveltime="0.15" overlapTraveltime="1.37" density="2.07" laneDensity="2.07" occupancy="0.11" waitingTime="0.00" timeLoss="2.15" speed="1.65" speedRelative="0.30" departed="2" arrived="0" entered="1" left="3" laneChangedFrom="0" laneChangedTo="0"/>
        <edge id="-1240736310" sampledSeconds="13.69" traveltime="13.71" overlapTraveltime="14.01" density="0.08" laneDensity="0.08" occupancy="0.01" waitingTime="0.00" timeLoss="0.84" speed="5.24" speedRelative="0.94" departed="1" arrived="0" entered="0" left="1" laneChangedFrom="0" laneChangedTo="0"/>
        <edge id="-1245937305#0" sampledSeconds="0.00" departed="0" arrived="0" entered="0" left="0" laneChangedFrom="0" laneChangedTo="0"/>
        <edge id="-1245937305#1" sampledSeconds="0.00" departed="0" arrived="0" entered="0" left="0" laneChangedFrom="0" laneChangedTo="0"/>
        <edge id="-1245943433#0" sampledSeconds="1.26" traveltime="0.05" overlapTraveltime="0.42" density="2.60" laneDensity="2.60" occupancy="0.05" waitingTime="0.00" timeLoss="0.34" speed="4.29" speedRelative="0.77" departed="0" arrived="0" entered="3" left="3" laneChangedFrom="0" laneChangedTo="0"/>
        <edge id="-1245943433#1" sampledSeconds="44.05" traveltime="10.59" overlapTraveltime="11.01" density="0.33" laneDensity="0.33" occupancy="0.05" waitingTime="0.00" timeLoss="3.70" speed="5.09" speedRelative="0.92" departed="0" arrived="1" entered="4" left="3" laneChangedFrom="0" laneChangedTo="0"/>
        <edge id="-1245943433#2" sampledSeconds="22.91" traveltime="7.34" overlapTraveltime="7.64" density="0.24" laneDensity="0.24" occupancy="0.04" waitingTime="0.00" timeLoss="1.66" speed="5.45" speedRelative="0.98" departed="0" arrived="0" entered="3" left="3" laneChangedFrom="0" laneChangedTo="0"/>
        <edge id="-1245943434" sampledSeconds="10.72" traveltime="2.55" overlapTraveltime="2.97" density="0.63" laneDensity="0.63" occupancy="0.09" waitingTime="0.00" timeLoss="4.98" speed="2.92" speedRelative="0.52" departed="2" arrived="0" entered="2" left="4" laneChangedFrom="0" laneChangedTo="0"/>
        <edge id="-1245947684" sampledSeconds="531.78" traveltime="4.33" overlapTraveltime="19.94" density="17.76" laneDensity="17.76" occupancy="7.02" waitingTime="407.00" timeLoss="466.84" speed="1.05" speedRelative="0.12" departed="0" arrived="1" entered="30" left="29" laneChangedFrom="0" laneChangedTo="0"/>
        <edge id="-1253747491#0" sampledSeconds="0.00" departed="0" arrived="0" entered="0" left="0" laneChangedFrom="0" laneChangedTo="0"/>
        <edge id="-1262050427" sampledSeconds="0.00" departed="0" arrived="0" entered="0" left="0" laneChangedFrom="0" laneChangedTo="0"/>
        <edge id="-1262050428" sampledSeconds="0.00" departed="0" arrived="0" entered="0" left="0" laneChangedFrom="0" laneChangedTo="0"/>
        <edge id="-1262386139#0" sampledSeconds="0.00" departed="0" arrived="0" entered="0" left="0" laneChangedFrom="0" laneChangedTo="0"/>
        <edge id="-1265033822" sampledSeconds="0.00" departed="0" arrived="0" entered="0" left="0" laneChangedFrom="0" laneChangedTo="0"/>
        <edge id="-1265033829" sampledSeconds="0.00" departed="0" arrived="0" entered="0" left="0" laneChangedFrom="0" laneChangedTo="0"/>
        <edge id="-1265033830" sampledSeconds="0.00" departed="0" arrived="0" entered="0" left="0" laneChangedFrom="0" laneChangedTo="0"/>
        <edge id="-1265033833" sampledSeconds="0.00" departed="0" arrived="0" entered="0" left="0" laneChangedFrom="0" laneChangedTo="0"/>
        <edge id="-1278349729#0" sampledSeconds="0.95" traveltime="0.29" overlapTraveltime="0.95" density="0.57" laneDensity="0.57" occupancy="0.03" waitingTime="0.00" timeLoss="0.36" speed="2.41" speedRelative="0.43" departed="0" arrived="0" entered="1" left="1" laneChangedFrom="0" laneChangedTo="0"/>
        <edge id="-1278349729#1" sampledSeconds="0.95" traveltime="0.97" overlapTraveltime="1.30" density="0.08" laneDensity="0.08" occupancy="0.01" waitingTime="0.00" timeLoss="0.08" speed="4.90" speedRelative="0.88" departed="1" arrived="0" entered="0" left="1" laneChangedFrom="0" laneChangedTo="0"/>
        <edge id="-1309044510#0" sampledSeconds="1.37" traveltime="0.84" overlapTraveltime="1.37" density="0.23" laneDensity="0.23" occupancy="0.02" waitingTime="0.00" timeLoss="0.25" speed="2.96" speedRelative="0.53" departed="0" arrived="0" entered="1" left="1" laneChangedFrom="0" laneChangedTo="0"/>
        <edge id="-1340003587#0" sampledSeconds="29.65" traveltime="0.95" overlapTraveltime="2.27" density="1.94" laneDensity="1.94" occupancy="0.66" waitingTime="0.00" timeLoss="9.50" speed="5.74" speedRelative="0.64" departed="3" arrived="3" entered="12" left="12" laneChangedFrom="0" laneChangedTo="0"/>
        <edge id="-1340003587#1" sampledSeconds="16.87" traveltime="0.32" overlapTraveltime="1.47" density="2.69" laneDensity="2.69" occupancy="0.51" waitingTime="0.00" timeLoss="3.98" speed="6.52" speedRelative="0.73" departed="2" arrived="2" entered="12" left="12" laneChangedFrom="0" laneChangedTo="0"/>
        <edge id="-1348089134#0" sampledSeconds="11.34" traveltime="11.32" overlapTraveltime="11.77" density="0.10" laneDensity="0.10" occupancy="0.02" waitingTime="0.00" timeLoss="3.74" speed="3.96" speedRelative="0.71" departed="1" arrived="0" entered="0" left="1" laneChangedFrom="0" laneChangedTo="0"/>
        <edge id="-1348089134#1" sampledSeconds="1.22" overlapTraveltime="1.37" density="2.52" laneDensity="2.52" occupancy="0.05" waitingTime="0.00" timeLoss="0.72" speed="1.31" speedRelative="0.24" departed="1" arrived="0" entered="0" left="1" laneChangedFrom="0" laneChangedTo="0"/>
        <edge id="-1369911709" sampledSeconds="0.00" departed="0" arrived="0" entered="0" left="0" laneChangedFrom="0" laneChangedTo="0"/>
        <edge id="-1369913831" sampledSeconds="0.00" departed="0" arrived="0" entered="0" left="0" laneChangedFrom="0" laneChangedTo="0"/>
        <edge id="-1370011297" sampledSeconds="0.00" departed="0" arrived="0" entered="0" left="0" laneChangedFrom="0" laneChangedTo="0"/>
        <edge id="-1415942083#0" sampledSeconds="232.17" traveltime="28.42" overlapTraveltime="28.96" density="0.47" laneDensity="0.47" occupancy="0.20" waitingTime="0.00" timeLoss="21.67" speed="7.24" speedRelative="0.81" departed="0" arrived="1" entered="8" left="7" laneChangedFrom="0" laneChangedTo="0"/>
        <edge id="-1415942083#1" sampledSeconds="17.65" traveltime="1.55" overlapTraveltime="2.38" density="0.82" laneDensity="0.82" occupancy="0.24" waitingTime="0.00" timeLoss="4.22" speed="6.24" speedRelative="0.70" departed="0" arrived="0" entered="8" left="8" laneChangedFrom="0" laneChangedTo="0"/>
        <edge id="-1443505747" sampledSeconds="0.00" departed="0" arrived="0" entered="0" left="0" laneChangedFrom="0" laneChangedTo="0"/>
        <edge id="-150133378#0" sampledSeconds="58.83" traveltime="11.54" overlapTraveltime="11.83" density="0.41" laneDensity="0.41" occupancy="0.06" waitingTime="0.00" timeLoss="5.17" speed="5.18" speedRelative="0.58" departed="1" arrived="1" entered="4" left="4" laneChangedFrom="0" laneChangedTo="0"/>
        <edge id="-150133378#1" sampledSeconds="2.20" traveltime="0.25" overlapTraveltime="0.55" density="0.71" laneDensity="0.71" occupancy="0.05" waitingTime="0.00" timeLoss="0.20" speed="5.23" speedRelative="0.59" departed="0" arrived="0" entered="4" left="4" laneChangedFrom="0" laneChangedTo="0"/>
        <edge id="-166615245#0" sampledSeconds="0.00" departed="0" arrived="0" entered="0" left="0" laneChangedFrom="0" laneChangedTo="0"/>
        <edge id="-166615245#1" sampledSeconds="0.00" departed="0" arrived="0" entered="0" left="0" laneChangedFrom="0" laneChangedTo="0"/>
        <edge id="-17513383#2" sampledSeconds="504.95" traveltime="13.10" overlapTraveltime="13.97" density="2.24" laneDensity="2.24" occupancy="1.09" waitingTime="0.00" timeLoss="55.07" speed="7.06" speedRelative="0.79" departed="0" arrived="0" entered="36" left="36" laneChangedFrom="0" laneChangedTo="0"/>
        <edge id="-17513383#3" sampledSeconds="608.88" traveltime="15.33" overlapTraveltime="15.99" density="2.29" laneDensity="2.29" occupancy="1.14" waitingTime="0.00" timeLoss="57.39" speed="7.19" speedRelative="0.80" departed="2" arrived="2" entered="36" left="36" laneChangedFrom="0" laneChangedTo="0"/>
        <edge id="-17929796#1" sampledSeconds="0.00" departed="0" arrived="0" entered="0" left="0" laneChangedFrom="0" laneChangedTo="0"/>
        <edge id="-18309858#0" sampledSeconds="24.28" traveltime="0.93" overlapTraveltime="3.35" density="7.26" laneDensity="7.26" occupancy="0.82" waitingTime="4.00" timeLoss="12.83" speed="2.64" speedRelative="0.30" departed="0" arrived="1" entered="10" left="9" laneChangedFrom="0" laneChangedTo="0"/>