<?xml version="1.0" encoding="UTF-8"?>

<!-- generated on 2025-10-26 14:35:01 by Eclipse SUMO GUI Version 1.24.0
<sumoConfiguration xmlns:xsi="http://www.w3.org/2001/XMLSchema-instance" xsi:noNamespaceSchemaLocation="http://sumo.dlr.de/xsd/sumoConfiguration.xsd">

    <input>
        <net-file value="C:\Program Files (x86)\Eclipse\Sumo\tools\2025-10-26-14-34-38\osm.net.xml.gz"/>
        <route-files value="C:\Program Files (x86)\Eclipse\Sumo\tools\2025-10-26-14-34-38\osm.bicycle.trips.xml,C:\Program Files (x86)\Eclipse\Sumo\tools\2025-10-26-14-34-38\osm.bus.trips.xml,C:\Program Files (x86)\Eclipse\Sumo\tools\2025-10-26-14-34-38\osm.motorcycle.trips.xml,C:\Program Files (x86)\Eclipse\Sumo\tools\2025-10-26-14-34-38\osm.passenger.trips.xml,C:\Program Files (x86)\Eclipse\Sumo\tools\2025-10-26-14-34-38\osm.pedestrian.rou.xml,C:\Program Files (x86)\Eclipse\Sumo\tools\2025-10-26-14-34-38\osm.truck.trips.xml"/>
        <additional-files value="C:\Program Files (x86)\Eclipse\Sumo\tools\2025-10-26-14-34-38\osm.poly.xml.gz,C:\Program Files (x86)\Eclipse\Sumo\tools\2025-10-26-14-34-38\output.add.xml"/>
    </input>

    <output>
        <tripinfo-output value="C:\Program Files (x86)\Eclipse\Sumo\tools\2025-10-26-14-34-38\tripinfos.xml"/>
        <statistic-output value="C:\Program Files (x86)\Eclipse\Sumo\tools\2025-10-26-14-34-38\stats.xml"/>
    </output>

    <processing>
        <ignore-route-errors value="true"/>
        <tls.actuated.jam-threshold value="30"/>
    </processing>

    <routing>
        <device.rerouting.adaptation-steps value="18"/>
        <device.rerouting.adaptation-interval value="10"/>
    </routing>

    <report>
        <verbose value="true"/>
        <duration-log.statistics value="true"/>
        <no-step-log value="true"/>
    </report>

    <gui_only>
        <gui-settings-file value="C:\Program Files (x86)\Eclipse\Sumo\tools\2025-10-26-14-34-38\osm.view.xml"/>
    </gui_only>

</sumoConfiguration>
-->

<tripinfos xmlns:xsi="http://www.w3.org/2001/XMLSchema-instance" xsi:noNamespaceSchemaLocation="http://sumo.dlr.de/xsd/tripinfo_file.xsd">
    <tripinfo id="motorcycle1" depart="39.00" departLane="746410872#1_1" departPos="2.30" departSpeed="0.00" departDelay="0.45" arrival="92.00" arrivalLane="-4253994#2_1" arrivalPos="60.71" arrivalSpeed="9.05" duration="53.00" routeLength="397.01" waitingTime="0.00" waitingCount="0" stopTime="0.00" timeLoss="10.00" rerouteNo="1" devices="tripinfo_motorcycle1 routing_motorcycle1" vType="motorcycle_motorcycle" speedFactor="1.08" vaporized=""/>
    <personinfo id="ped6" depart="47.00" type="ped_pedestrian" speedFactor="1.00" duration="55.00" waitingTime="0.00" timeLoss="5.06" traveltime="55.00">
        <walk depart="47.00" departPos="0.00" arrival="102.00" arrivalPos="1.17" duration="55.00" routeLength="69.18" timeLoss="5.06" maxSpeed="1.39" waitingTime="0.00"/>
    </personinfo>
    <tripinfo id="bus0" depart="0.00" departLane="-1065127941_0" departPos="12.10" departSpeed="8.94" departDelay="0.00" arrival="154.00" arrivalLane="1100812341#1_0" arrivalPos="0.20" arrivalSpeed="8.60" duration="154.00" routeLength="818.97" waitingTime="49.00" waitingCount="1" stopTime="0.00" timeLoss="61.55" rerouteNo="1" devices="tripinfo_bus0 routing_bus0" vType="bus_bus" speedFactor="1.00" vaporized=""/>
    <tripinfo id="bike0" depart="0.00" departLane="741025767_0" departPos="1.70" departSpeed="5.89" departDelay="0.00" arrival="190.00" arrivalLane="-150133378#0_0" arrivalPos="59.70" arrivalSpeed="5.61" duration="190.00" routeLength="939.02" waitingTime="16.00" waitingCount="1" stopTime="0.00" timeLoss="30.20" rerouteNo="1" devices="tripinfo_bike0 routing_bike0" vType="bike_bicycle" speedFactor="1.06" vaporized=""/>
    <tripinfo id="motorcycle0" depart="0.00" departLane="1100812341#1_0" departPos="0.20" departSpeed="0.00" departDelay="0.00" arrival="198.00" arrivalLane="24936260#0_0" arrivalPos="66.89" arrivalSpeed="8.52" duration="198.00" routeLength="561.06" waitingTime="116.00" waitingCount="2" stopTime="0.00" timeLoss="134.53" rerouteNo="1" devices="tripinfo_motorcycle0 routing_motorcycle0" vType="motorcycle_motorcycle" speedFactor="1.01" vaporized=""/>
    <tripinfo id="bike5" depart="90.00" departLane="505690871_0" departPos="1.70" departSpeed="6.24" departDelay="0.61" arrival="206.00" arrivalLane="-1007519980_0" arrivalPos="13.18" arrivalSpeed="5.84" duration="116.00" routeLength="648.15" waitingTime="0.00" waitingCount="0" stopTime="0.00" timeLoss="11.22" rerouteNo="1" devices="tripinfo_bike5 routing_bike5" vType="bike_bicycle" speedFactor="1.12" vaporized=""/>
    <tripinfo id="bike4" depart="72.00" departLane="3087449#0_0" departPos="1.70" departSpeed="0.00" departDelay="0.48" arrival="224.00" arrivalLane="166615245#1_0" arrivalPos="24.70" arrivalSpeed="5.25" duration="152.00" routeLength="644.16" waitingTime="1.00" waitingCount="1" stopTime="0.00" timeLoss="17.33" rerouteNo="1" devices="tripinfo_bike4 routing_bike4" vType="bike_bicycle" speedFactor="1.05" vaporized=""/>
    <tripinfo id="veh6" depart="78.00" departLane="542832660#1_0" departPos="5.10" departSpeed="0.00" departDelay="0.90" arrival="226.00" arrivalLane="884555174#0_1" arrivalPos="0.20" arrivalSpeed="10.08" duration="148.00" routeLength="1079.82" waitingTime="7.00" waitingCount="2" stopTime="0.00" timeLoss="44.68" rerouteNo="1" devices="tripinfo_veh6 routing_veh6" vType="veh_passenger" speedFactor="1.18" vaporized=""/>
    <personinfo id="ped27" depart="210.00" type="ped_pedestrian" speedFactor="0.91" duration="41.00" waitingTime="0.00" timeLoss="4.29" traveltime="41.00">
        <walk depart="210.00" departPos="0.00" arrival="251.00" arrivalPos="30.36" duration="41.00" routeLength="46.63" timeLoss="4.29" maxSpeed="1.27" waitingTime="0.00"/>
    </personinfo>
    <tripinfo id="bus2" depart="75.00" departLane="49934825#1_1" departPos="12.10" departSpeed="0.00" departDelay="0.96" arrival="264.00" arrivalLane="303559648#1_0" arrivalPos="50.29" arrivalSpeed="8.38" duration="189.00" routeLength="1410.63" waitingTime="10.00" waitingCount="1" stopTime="0.00" timeLoss="30.52" rerouteNo="1" devices="tripinfo_bus2 routing_bus2" vType="bus_bus" speedFactor="1.00" vaporized=""/>
    <tripinfo id="truck0" depart="0.00" departLane="1200987340_0" departPos="7.20" departSpeed="8.66" departDelay="0.00" arrival="267.00" arrivalLane="-884555186_1" arrivalPos="14.93" arrivalSpeed="6.42" duration="267.00" routeLength="1077.04" waitingTime="95.00" waitingCount="5" stopTime="0.00" timeLoss="141.49" rerouteNo="1" devices="tripinfo_truck0 routing_truck0" vType="truck_truck" speedFactor="0.97" vaporized=""/>
    <tripinfo id="bike3" depart="54.00" departLane="-1064730491#1_0" departPos="0.71" departSpeed="5.24" departDelay="0.36" arrival="284.00" arrivalLane="-4253273#0_0" arrivalPos="4.02" arrivalSpeed="4.22" duration="230.00" routeLength="951.47" waitingTime="36.00" waitingCount="3" stopTime="0.00" timeLoss="62.44" rerouteNo="1" devices="tripinfo_bike3 routing_bike3" vType="bike_bicycle" speedFactor="1.03" vaporized=""/>
    <tripinfo id="motorcycle3" depart="116.00" departLane="-4059326#1_0" departPos="2.30" departSpeed="0.00" departDelay="0.35" arrival="284.00" arrivalLane="18309858#2_0" arrivalPos="109.84" arrivalSpeed="6.68" duration="168.00" routeLength="1175.24" waitingTime="0.00" waitingCount="0" stopTime="0.00" timeLoss="30.91" rerouteNo="1" devices="tripinfo_motorcycle3 routing_motorcycle3" vType="motorcycle_motorcycle" speedFactor="0.97" vaporized=""/>
    <tripinfo id="veh1" depart="13.00" departLane="-311804827#1_0" departPos="5.10" departSpeed="0.00" departDelay="0.15" arrival="286.00" arrivalLane="-996665163_1" arrivalPos="20.15" arrivalSpeed="7.41" duration="273.00" routeLength="1377.48" waitingTime="56.00" waitingCount="3" stopTime="0.00" timeLoss="87.32" rerouteNo="1" devices="tripinfo_veh1 routing_veh1" vType="veh_passenger" speedFactor="0.83" vaporized=""/>
    <tripinfo id="truck8" depart="155.00" departLane="-306452416#3_0" departPos="7.20" departSpeed="0.00" departDelay="0.80" arrival="286.00" arrivalLane="-675079978#0_0" arrivalPos="3.31" arrivalSpeed="8.37" duration="131.00" routeLength="878.87" waitingTime="0.00" waitingCount="0" stopTime="0.00" timeLoss="29.09" rerouteNo="1" devices="tripinfo_truck8 routing_truck8" vType="truck_truck" speedFactor="0.98" vaporized=""/>
    <tripinfo id="bus3" depart="112.00" departLane="1415942083#1_0" departPos="8.92" departSpeed="0.00" departDelay="0.93" arrival="293.00" arrivalLane="27188930_0" arrivalPos="0.50" arrivalSpeed="7.23" duration="181.00" routeLength="1017.11" waitingTime="51.00" waitingCount="1" stopTime="0.00" timeLoss="66.49" rerouteNo="1" devices="tripinfo_bus3 routing_bus3" vType="bus_bus" speedFactor="1.00" vaporized=""/>
    <tripinfo id="veh8" depart="103.00" departLane="675079978#1_0" departPos="5.10" departSpeed="0.00" departDelay="0.20" arrival="294.00" arrivalLane="314895559_0" arrivalPos="13.95" arrivalSpeed="4.05" duration="191.00" routeLength="1167.14" waitingTime="17.00" waitingCount="1" stopTime="0.00" timeLoss="38.69" rerouteNo="1" devices="tripinfo_veh8 routing_veh8" vType="veh_passenger" speedFactor="1.01" vaporized=""/>
    <tripinfo id="veh7" depart="90.00" departLane="1065177555_1" departPos="5.10" departSpeed="10.32" departDelay="0.05" arrival="295.00" arrivalLane="8173099_0" arrivalPos="64.58" arrivalSpeed="6.56" duration="205.00" routeLength="1253.86" waitingTime="52.00" waitingCount="2" stopTime="0.00" timeLoss="83.17" rerouteNo="1" devices="tripinfo_veh7 routing_veh7" vType="veh_passenger" speedFactor="1.15" vaporized=""/>
    <tripinfo id="veh0" depart="0.00" departLane="-884555174#0_1" departPos="0.20" departSpeed="0.00" departDelay="0.00" arrival="316.00" arrivalLane="1211000762_1" arrivalPos="0.20" arrivalSpeed="8.53" duration="316.00" routeLength="1331.49" waitingTime="133.00" waitingCount="6" stopTime="0.00" timeLoss="170.24" rerouteNo="1" devices="tripinfo_veh0 routing_veh0" vType="veh_passenger" speedFactor="1.03" vaporized=""/>
    <tripinfo id="veh14" depart="180.00" departLane="4059308#0_0" departPos="0.78" departSpeed="0.00" departDelay="0.10" arrival="319.00" arrivalLane="17929796#1_1" arrivalPos="5.29" arrivalSpeed="9.52" duration="139.00" routeLength="1206.70" waitingTime="0.00" waitingCount="0" stopTime="0.00" timeLoss="15.33" rerouteNo="1" devices="tripinfo_veh14 routing_veh14" vType="veh_passenger" speedFactor="1.10" vaporized=""/>
    <tripinfo id="truck11" depart="213.00" departLane="-4257237#0_0" departPos="1.24" departSpeed="0.00" departDelay="0.98" arrival="324.00" arrivalLane="825288063#1_0" arrivalPos="21.38" arrivalSpeed="8.71" duration="111.00" routeLength="705.58" waitingTime="14.00" waitingCount="1" stopTime="0.00" timeLoss="30.11" rerouteNo="1" devices="tripinfo_truck11 routing_truck11" vType="truck_truck" speedFactor="0.99" vaporized=""/>
    <tripinfo id="bike7" depart="126.00" departLane="860776043#2_0" departPos="1.70" departSpeed="0.00" departDelay="0.85" arrival="331.00" arrivalLane="-851719169_0" arrivalPos="0.20" arrivalSpeed="5.02" duration="205.00" routeLength="747.16" waitingTime="39.00" waitingCount="2" stopTime="0.00" timeLoss="59.21" rerouteNo="1" devices="tripinfo_bike7 routing_bike7" vType="bike_bicycle" speedFactor="0.93" vaporized=""/>
    <tripinfo id="veh13" depart="168.00" departLane="-1100812341#1_0" departPos="0.20" departSpeed="0.00" departDelay="0.95" arrival="331.00" arrivalLane="747147372#0_1" arrivalPos="40.11" arrivalSpeed="9.91" duration="163.00" routeLength="1360.62" waitingTime="11.00" waitingCount="1" stopTime="0.00" timeLoss="32.97" rerouteNo="1" devices="tripinfo_veh13 routing_veh13" vType="veh_passenger" speedFactor="1.18" vaporized=""/>
    <tripinfo id="truck4" depart="78.00" departLane="26763531_1" departPos="7.20" departSpeed="9.04" departDelay="0.90" arrival="333.00" arrivalLane="-587317657#1_1" arrivalPos="35.90" arrivalSpeed="8.78" duration="255.00" routeLength="1572.61" waitingTime="46.00" waitingCount="4" stopTime="0.00" timeLoss="80.60" rerouteNo="1" devices="tripinfo_truck4 routing_truck4" vType="truck_truck" speedFactor="1.01" vaporized=""/>
    <tripinfo id="bike2" depart="36.00" departLane="-4253497#2_0" departPos="1.70" departSpeed="6.06" departDelay="0.24" arrival="335.00" arrivalLane="1245943433#1_0" arrivalPos="54.48" arrivalSpeed="5.56" duration="299.00" routeLength="1136.32" waitingTime="81.00" waitingCount="3" stopTime="0.00" timeLoss="110.84" rerouteNo="1" devices="tripinfo_bike2 routing_bike2" vType="bike_bicycle" speedFactor="1.09" vaporized=""/>
    <tripinfo id="motorcycle2" depart="78.00" departLane="-542832662_0" departPos="2.30" departSpeed="0.00" departDelay="0.90" arrival="344.00" arrivalLane="-1112581137#0_0" arrivalPos="23.31" arrivalSpeed="7.84" duration="266.00" routeLength="1282.39" waitingTime="76.00" waitingCount="5" stopTime="0.00" timeLoss="121.57" rerouteNo="1" devices="tripinfo_motorcycle2 routing_motorcycle2" vType="motorcycle_motorcycle" speedFactor="1.01" vaporized=""/>
    <tripinfo id="veh2" depart="26.00" departLane="-306452424#0_0" departPos="5.10" departSpeed="0.00" departDelay="0.30" arrival="344.00" arrivalLane="-1062480575_1" arrivalPos="9.09" arrivalSpeed="7.02" duration="318.00" routeLength="1118.67" waitingTime="144.00" waitingCount="6" stopTime="0.00" timeLoss="181.22" rerouteNo="1" devices="tripinfo_veh2 routing_veh2" vType="veh_passenger" speedFactor="0.92" vaporized=""/>
    <tripinfo id="veh20" depart="257.00" departLane="4059325#2_0" departPos="5.10" departSpeed="0.00" departDelay="0.00" arrival="345.00" arrivalLane="1245947684_1" arrivalPos="12.35" arrivalSpeed="8.34" duration="88.00" routeLength="596.92" waitingTime="9.00" waitingCount="1" stopTime="0.00" timeLoss="21.00" rerouteNo="1" devices="tripinfo_veh20 routing_veh20" vType="veh_passenger" speedFactor="1.01" vaporized=""/>
    <tripinfo id="bike13" depart="233.00" departLane="62036633_0" departPos="1.70" departSpeed="0.00" departDelay="0.57" arrival="363.00" arrivalLane="246170015#0_0" arrivalPos="42.11" arrivalSpeed="4.40" duration="130.00" routeLength="434.72" waitingTime="27.00" waitingCount="1" stopTime="0.00" timeLoss="38.99" rerouteNo="1" devices="tripinfo_bike13 routing_bike13" vType="bike_bicycle" speedFactor="1.01" vaporized=""/>
    <tripinfo id="bike1" depart="18.00" departLane="1007519980_0" departPos="1.70" departSpeed="0.00" departDelay="0.12" arrival="370.00" arrivalLane="-1065258328#2_0" arrivalPos="22.64" arrivalSpeed="4.81" duration="352.00" routeLength="979.99" waitingTime="136.00" waitingCount="3" stopTime="0.00" timeLoss="162.92" rerouteNo="1" devices="tripinfo_bike1 routing_bike1" vType="bike_bicycle" speedFactor="0.94" vaporized=""/>
    <tripinfo id="bus5" depart="186.00" departLane="-18309858#2_0" departPos="12.10" departSpeed="0.00" departDelay="0.89" arrival="373.00" arrivalLane="860776044#0_0" arrivalPos="13.25" arrivalSpeed="8.52" duration="187.00" routeLength="1379.46" waitingTime="9.00" waitingCount="1" stopTime="0.00" timeLoss="30.57" rerouteNo="1" devices="tripinfo_bus5 routing_bus5" vType="bus_bus" speedFactor="1.00" vaporized=""/>
    <tripinfo id="bike11" depart="197.00" departLane="1245946975_0" departPos="1.70" departSpeed="0.00" departDelay="0.33" arrival="376.00" arrivalLane="884555184#1_0" arrivalPos="5.75" arrivalSpeed="6.37" duration="179.00" routeLength="865.39" waitingTime="14.00" waitingCount="3" stopTime="0.00" timeLoss="44.14" rerouteNo="1" devices="tripinfo_bike11 routing_bike11" vType="bike_bicycle" speedFactor="1.16" vaporized=""/>
    <tripinfo id="veh9" depart="116.00" departLane="3087449#3_0" departPos="0.10" departSpeed="0.00" departDelay="0.35" arrival="376.00" arrivalLane="-18309858#1_0" arrivalPos="101.39" arrivalSpeed="9.41" duration="260.00" routeLength="1838.65" waitingTime="0.00" waitingCount="0" stopTime="0.00" timeLoss="83.28" rerouteNo="1" devices="tripinfo_veh9 routing_veh9" vType="veh_passenger" speedFactor="1.17" vaporized=""/>
    <tripinfo id="bus1" depart="38.00" departLane="648568130_0" departPos="12.10" departSpeed="0.00" departDelay="0.98" arrival="378.00" arrivalLane="587318293_0" arrivalPos="7.42" arrivalSpeed="8.86" duration="340.00" routeLength="1828.76" waitingTime="58.00" waitingCount="5" stopTime="0.00" timeLoss="106.15" rerouteNo="1" devices="tripinfo_bus1 routing_bus1" vType="bus_bus" speedFactor="1.00" vaporized=""/>
    <tripinfo id="motorcycle7" depart="270.00" departLane="-303559648#2_0" departPos="2.30" departSpeed="0.00" departDelay="0.15" arrival="388.00" arrivalLane="681757485_0" arrivalPos="21.65" arrivalSpeed="6.80" duration="118.00" routeLength="711.19" waitingTime="15.00" waitingCount="2" stopTime="0.00" timeLoss="38.67" rerouteNo="1" devices="tripinfo_motorcycle7 routing_motorcycle7" vType="motorcycle_motorcycle" speedFactor="1.02" vaporized=""/>
    <tripinfo id="veh16" depart="206.00" departLane="-4059306#0_0" departPos="5.10" departSpeed="0.00" departDelay="0.40" arrival="394.00" arrivalLane="3127740#0_1" arrivalPos="0.20" arrivalSpeed="8.19" duration="188.00" routeLength="1222.54" waitingTime="34.00" waitingCount="1" stopTime="0.00" timeLoss="53.90" rerouteNo="1" devices="tripinfo_veh16 routing_veh16" vType="veh_passenger" speedFactor="1.03" vaporized=""/>
    <personinfo id="ped12" depart="94.00" type="ped_pedestrian" speedFactor="1.02" duration="302.00" waitingTime="46.00" timeLoss="75.79" traveltime="302.00">
        <walk depart="94.00" departPos="0.00" arrival="396.00" arrivalPos="3.48" duration="302.00" routeLength="319.46" timeLoss="75.79" maxSpeed="1.41" waitingTime="46.00"/>
    </personinfo>
    <tripinfo id="veh23" depart="296.00" departLane="-316352257#1_1" departPos="5.10" departSpeed="0.00" departDelay="0.45" arrival="398.00" arrivalLane="31259042_0" arrivalPos="195.84" arrivalSpeed="9.71" duration="102.00" routeLength="558.51" waitingTime="31.00" waitingCount="1" stopTime="0.00" timeLoss="44.13" rerouteNo="1" devices="tripinfo_veh23 routing_veh23" vType="veh_passenger" speedFactor="1.10" vaporized=""/>
    <tripinfo id="veh15" depart="193.00" departLane="-237413929#2_0" departPos="5.10" departSpeed="0.00" departDelay="0.25" arrival="408.00" arrivalLane="876833209#1_2" arrivalPos="6.17" arrivalSpeed="7.35" duration="215.00" routeLength="1289.08" waitingTime="26.00" waitingCount="2" stopTime="0.00" timeLoss="53.35" rerouteNo="1" devices="tripinfo_veh15 routing_veh15" vType="veh_passenger" speedFactor="0.90" vaporized=""/>
    <tripinfo id="bike18" depart="327.00" departLane="303559648#1_0" departPos="1.70" departSpeed="0.00" departDelay="5.18" arrival="410.00" arrivalLane="-913020667_0" arrivalPos="3.65" arrivalSpeed="4.89" duration="83.00" routeLength="309.08" waitingTime="11.00" waitingCount="2" stopTime="0.00" timeLoss="25.40" rerouteNo="1" devices="tripinfo_bike18 routing_bike18" vType="bike_bicycle" speedFactor="0.97" vaporized=""/>
    <tripinfo id="veh19" depart="245.00" departLane="38444000_0" departPos="5.10" departSpeed="0.00" departDelay="0.85" arrival="415.00" arrivalLane="17929796#1_1" arrivalPos="5.29" arrivalSpeed="9.30" duration="170.00" routeLength="1340.65" waitingTime="3.00" waitingCount="1" stopTime="0.00" timeLoss="26.81" rerouteNo="1" devices="tripinfo_veh19 routing_veh19" vType="veh_passenger" speedFactor="1.06" vaporized=""/>
    <tripinfo id="veh5" depart="65.00" departLane="-3087449#0_0" departPos="4.90" departSpeed="0.00" departDelay="0.75" arrival="421.00" arrivalLane="1062480574_0" arrivalPos="58.11" arrivalSpeed="7.36" duration="356.00" routeLength="1718.64" waitingTime="78.00" waitingCount="4" stopTime="0.00" timeLoss="148.24" rerouteNo="1" devices="tripinfo_veh5 routing_veh5" vType="veh_passenger" speedFactor="0.93" vaporized=""/>
    <personinfo id="ped41" depart="319.00" type="ped_pedestrian" speedFactor="1.03" duration="114.00" waitingTime="0.00" timeLoss="13.65" traveltime="114.00">
        <walk depart="319.00" departPos="0.00" arrival="433.00" arrivalPos="1.32" duration="114.00" routeLength="143.76" timeLoss="13.65" maxSpeed="1.43" waitingTime="0.00"/>
    </personinfo>
    <tripinfo id="veh4" depart="52.00" departLane="746410872#0_0" departPos="5.10" departSpeed="10.12" departDelay="0.60" arrival="433.00" arrivalLane="4253998#1_1" arrivalPos="17.16" arrivalSpeed="9.62" duration="381.00" routeLength="661.15" waitingTime="283.00" waitingCount="5" stopTime="0.00" timeLoss="314.45" rerouteNo="1" devices="tripinfo_veh4 routing_veh4" vType="veh_passenger" speedFactor="1.13" vaporized=""/>
    <tripinfo id="motorcycle5" depart="193.00" departLane="1051341393_0" departPos="2.30" departSpeed="0.00" departDelay="0.25" arrival="437.00" arrivalLane="1065127939#0_0" arrivalPos="7.58" arrivalSpeed="4.59" duration="244.00" routeLength="893.92" waitingTime="82.00" waitingCount="2" stopTime="0.00" timeLoss="122.15" rerouteNo="1" devices="tripinfo_motorcycle5 routing_motorcycle5" vType="motorcycle_motorcycle" speedFactor="0.83" vaporized=""/>
    <tripinfo id="truck1" depart="20.00" departLane="279154263_0" departPos="7.20" departSpeed="8.30" departDelay="0.73" arrival="451.00" arrivalLane="-49934843#2_0" arrivalPos="21.62" arrivalSpeed="8.08" duration="431.00" routeLength="1779.64" waitingTime="170.00" waitingCount="6" stopTime="0.00" timeLoss="215.27" rerouteNo="1" devices="tripinfo_truck1 routing_truck1" vType="truck_truck" speedFactor="0.93" vaporized=""/>
    <tripinfo id="bike17" depart="304.00" departLane="-17513383#3_0" departPos="1.70" departSpeed="0.00" departDelay="0.06" arrival="453.00" arrivalLane="-558255409#1_0" arrivalPos="52.22" arrivalSpeed="5.42" duration="149.00" routeLength="710.27" waitingTime="9.00" waitingCount="1" stopTime="0.00" timeLoss="22.55" rerouteNo="1" devices="tripinfo_bike17 routing_bike17" vType="bike_bicycle" speedFactor="1.02" vaporized=""/>
    <tripinfo id="veh3" depart="39.00" departLane="1006631258#2_0" departPos="5.10" departSpeed="0.00" departDelay="0.45" arrival="460.00" arrivalLane="485039787#1_0" arrivalPos="12.06" arrivalSpeed="8.28" duration="421.00" routeLength="1836.24" waitingTime="160.00" waitingCount="5" stopTime="0.00" timeLoss="203.78" rerouteNo="1" devices="tripinfo_veh3 routing_veh3" vType="veh_passenger" speedFactor="0.95" vaporized=""/>
    <tripinfo id="truck3" depart="58.00" departLane="246170016_0" departPos="7.20" departSpeed="0.00" departDelay="0.18" arrival="468.00" arrivalLane="-587315169#1_0" arrivalPos="0.20" arrivalSpeed="8.26" duration="410.00" routeLength="1319.28" waitingTime="207.00" waitingCount="5" stopTime="0.00" timeLoss="253.26" rerouteNo="1" devices="tripinfo_truck3 routing_truck3" vType="truck_truck" speedFactor="1.01" vaporized=""/>
    <personinfo id="ped18" depart="140.00" type="ped_pedestrian" speedFactor="1.02" duration="341.00" waitingTime="11.00" timeLoss="51.07" traveltime="341.00">
        <walk depart="140.00" departPos="0.00" arrival="481.00" arrivalPos="0.10" duration="341.00" routeLength="412.18" timeLoss="51.07" maxSpeed="1.42" waitingTime="11.00"/>
    </personinfo>
    <personinfo id="ped11" depart="86.00" type="ped_pedestrian" speedFactor="1.17" duration="397.00" waitingTime="3.00" timeLoss="42.50" traveltime="397.00">
        <walk depart="86.00" departPos="0.00" arrival="483.00" arrivalPos="1.61" duration="397.00" routeLength="575.53" timeLoss="42.50" maxSpeed="1.62" waitingTime="3.00"/>
    </personinfo>
    <tripinfo id="bus8" depart="335.00" departLane="884555181_0" departPos="10.71" departSpeed="0.00" departDelay="38.83" arrival="492.00" arrivalLane="239761119_0" arrivalPos="11.34" arrivalSpeed="4.97" duration="157.00" routeLength="1073.78" waitingTime="1.00" waitingCount="1" stopTime="0.00" timeLoss="36.69" rerouteNo="1" devices="tripinfo_bus8 routing_bus8" vType="bus_bus" speedFactor="1.00" vaporized=""/>
    <personinfo id="ped33" depart="257.00" type="ped_pedestrian" speedFactor="1.10" duration="243.00" waitingTime="0.00" timeLoss="24.12" traveltime="243.00">
        <walk depart="257.00" departPos="0.00" arrival="500.00" arrivalPos="7.11" duration="243.00" routeLength="333.30" timeLoss="24.12" maxSpeed="1.52" waitingTime="0.00"/>
    </personinfo>
    <tripinfo id="veh10" depart="129.00" departLane="1112581135_0" departPos="1.08" departSpeed="0.00" departDelay="0.50" arrival="501.00" arrivalLane="687481231#1_0" arrivalPos="26.95" arrivalSpeed="8.34" duration="372.00" routeLength="1518.17" waitingTime="120.00" waitingCount="6" stopTime="0.00" timeLoss="201.14" rerouteNo="1" devices="tripinfo_veh10 routing_veh10" vType="veh_passenger" speedFactor="0.99" vaporized=""/>
    <tripinfo id="truck5" depart="97.00" departLane="-913020667_0" departPos="3.65" departSpeed="0.00" departDelay="0.63" arrival="513.00" arrivalLane="49934843#1_0" arrivalPos="16.66" arrivalSpeed="8.52" duration="416.00" routeLength="2265.49" waitingTime="102.00" waitingCount="4" stopTime="0.00" timeLoss="156.22" rerouteNo="1" devices="tripinfo_truck5 routing_truck5" vType="truck_truck" speedFactor="0.99" vaporized=""/>
    <tripinfo id="veh21" depart="270.00" departLane="-4253998#1_1" departPos="5.10" departSpeed="8.10" departDelay="0.15" arrival="525.00" arrivalLane="-1100812341#1_0" arrivalPos="0.20" arrivalSpeed="7.33" duration="255.00" routeLength="659.37" waitingTime="142.00" waitingCount="3" stopTime="0.00" timeLoss="172.08" rerouteNo="1" devices="tripinfo_veh21 routing_veh21" vType="veh_passenger" speedFactor="0.91" vaporized=""/>
    <personinfo id="ped4" depart="32.00" type="ped_pedestrian" speedFactor="1.04" duration="496.00" waitingTime="1.00" timeLoss="57.76" traveltime="496.00">
        <walk depart="32.00" departPos="0.00" arrival="528.00" arrivalPos="0.81" duration="496.00" routeLength="635.08" timeLoss="57.76" maxSpeed="1.45" waitingTime="1.00"/>
    </personinfo>
    <tripinfo id="bike14" depart="251.00" departLane="4059306#1_0" departPos="1.70" departSpeed="0.00" departDelay="0.69" arrival="528.00" arrivalLane="-1140688622_0" arrivalPos="96.99" arrivalSpeed="5.48" duration="277.00" routeLength="1467.48" waitingTime="8.00" waitingCount="2" stopTime="0.00" timeLoss="33.05" rerouteNo="1" devices="tripinfo_bike14 routing_bike14" vType="bike_bicycle" speedFactor="1.09" vaporized=""/>
    <tripinfo id="veh30" depart="386.00" departLane="4253988#1_0" departPos="5.10" departSpeed="0.00" departDelay="0.50" arrival="535.00" arrivalLane="306452424#1_0" arrivalPos="95.87" arrivalSpeed="8.50" duration="149.00" routeLength="777.24" waitingTime="33.00" waitingCount="2" stopTime="0.00" timeLoss="62.02" rerouteNo="1" devices="tripinfo_veh30 routing_veh30" vType="veh_passenger" speedFactor="1.01" vaporized=""/>
    <tripinfo id="truck15" depart="290.00" departLane="501243983_1" departPos="7.20" departSpeed="0.00" departDelay="0.88" arrival="545.00" arrivalLane="561132269#0_0" arrivalPos="1.48" arrivalSpeed="7.09" duration="255.00" routeLength="1155.33" waitingTime="90.00" waitingCount="3" stopTime="0.00" timeLoss="123.12" rerouteNo="1" devices="tripinfo_truck15 routing_truck15" vType="truck_truck" speedFactor="1.00" vaporized=""/>
    <personinfo id="ped30" depart="234.00" type="ped_pedestrian" speedFactor="0.87" duration="324.00" waitingTime="1.00" timeLoss="34.77" traveltime="324.00">
        <walk depart="234.00" departPos="0.00" arrival="558.00" arrivalPos="0.10" duration="324.00" routeLength="347.83" timeLoss="34.77" maxSpeed="1.20" waitingTime="1.00"/>
    </personinfo>
    <tripinfo id="motorcycle13" depart="502.00" departLane="1112581141_1" departPos="2.30" departSpeed="0.00" departDelay="0.85" arrival="559.00" arrivalLane="-1200987340_1" arrivalPos="7.89" arrivalSpeed="7.46" duration="57.00" routeLength="430.01" waitingTime="1.00" waitingCount="1" stopTime="0.00" timeLoss="14.46" rerouteNo="1" devices="tripinfo_motorcycle13 routing_motorcycle13" vType="motorcycle_motorcycle" speedFactor="1.14" vaporized=""/>
    <tripinfo id="truck16" depart="309.00" departLane="236141635#1_0" departPos="7.20" departSpeed="0.00" departDelay="0.60" arrival="560.00" arrivalLane="27188930_0" arrivalPos="0.50" arrivalSpeed="7.27" duration="251.00" routeLength="633.49" waitingTime="151.00" waitingCount="3" stopTime="0.00" timeLoss="178.38" rerouteNo="1" devices="tripinfo_truck16 routing_truck16" vType="truck_truck" speedFactor="0.98" vaporized=""/>
    <tripinfo id="truck7" depart="136.00" departLane="1186049313#1_0" departPos="1.12" departSpeed="0.00" departDelay="1.08" arrival="564.00" arrivalLane="987343785#1_0" arrivalPos="34.78" arrivalSpeed="8.60" duration="428.00" routeLength="2608.96" waitingTime="59.00" waitingCount="4" stopTime="0.00" timeLoss="140.59" rerouteNo="1" devices="tripinfo_truck7 routing_truck7" vType="truck_truck" speedFactor="1.03" vaporized=""/>
    <personinfo id="ped1" depart="8.00" type="ped_pedestrian" speedFactor="0.89" duration="557.00" waitingTime="6.00" timeLoss="64.24" traveltime="557.00">
        <walk depart="8.00" departPos="0.00" arrival="565.00" arrivalPos="26.84" duration="557.00" routeLength="606.37" timeLoss="64.24" maxSpeed="1.23" waitingTime="6.00"/>
    </personinfo>
    <personinfo id="ped17" depart="133.00" type="ped_pedestrian" speedFactor="1.14" duration="435.00" waitingTime="12.00" timeLoss="58.59" traveltime="435.00">
        <walk depart="133.00" departPos="0.00" arrival="568.00" arrivalPos="52.40" duration="435.00" routeLength="597.29" timeLoss="58.59" maxSpeed="1.59" waitingTime="12.00"/>
    </personinfo>
    <personinfo id="ped23" depart="179.00" type="ped_pedestrian" speedFactor="0.99" duration="389.00" waitingTime="5.00" timeLoss="43.26" traveltime="389.00">
        <walk depart="179.00" departPos="0.00" arrival="568.00" arrivalPos="39.48" duration="389.00" routeLength="473.96" timeLoss="43.26" maxSpeed="1.37" waitingTime="5.00"/>
    </personinfo>