<?xml version="1.0" encoding="UTF-8"?>

<!-- generated on 2025-10-28 18:04:14 by Eclipse SUMO GUI Version 1.24.0
<sumoConfiguration xmlns:xsi="http://www.w3.org/2001/XMLSchema-instance" xsi:noNamespaceSchemaLocation="http://sumo.dlr.de/xsd/sumoConfiguration.xsd">

    <input>
        <net-file value="C:\Users\Abdul\Downloads\sumo\osm\car\osm.net.xml.gz"/>
        <route-files value="C:\Users\Abdul\Downloads\sumo\osm\car\osm.bicycle.trips.xml,C:\Users\Abdul\Downloads\sumo\osm\car\osm.bus.trips.xml,C:\Users\Abdul\Downloads\sumo\osm\car\osm.motorcycle.trips.xml,C:\Users\Abdul\Downloads\sumo\osm\car\osm.passenger.trips.xml,C:\Users\Abdul\Downloads\sumo\osm\car\osm.pedestrian.rou.xml,C:\Users\Abdul\Downloads\sumo\osm\car\osm.truck.trips.xml"/>
        <additional-files value="C:\Users\Abdul\Downloads\sumo\osm\car\osm.poly.xml.gz,C:\Users\Abdul\Downloads\sumo\osm\car\output.add.xml"/>
    </input>

    <output>
        <tripinfo-output value="C:\Users\Abdul\Downloads\sumo\osm\car\tripinfos.xml"/>
        <statistic-output value="C:\Users\Abdul\Downloads\sumo\osm\car\stats.xml"/>
    </output>

    <processing>
        <ignore-route-errors value="true"/>
        <tls.actuated.jam-threshold value="30"/>
    </processing>

    <routing>
        <device.rerouting.adaptation-steps value="18"/>
        <device.rerouting.adaptation-interval value="10"/>
    </routing>

    <report>
        <verbose value="true"/>
        <duration-log.statistics value="true"/>
        <no-step-log value="true"/>
    </report>

    <gui_only>
        <gui-settings-file value="C:\Users\Abdul\Downloads\sumo\osm\car\osm.view.xml"/>
    </gui_only>

</sumoConfiguration>
-->

<meandata xmlns:xsi="http://www.w3.org/2001/XMLSchema-instance" xsi:noNamespaceSchemaLocation="http://sumo.dlr.de/xsd/meandata_file.xsd">
</meandata>
